# vtk DataFile Version 3.0
Laplace Solution with Jacobi
ASCII
DATASET STRUCTURED_POINTS
DIMENSIONS 256 256 1
ORIGIN 0.0 0.0 0.0
SPACING 0.00392157 0.00392157 1.0
POINT_DATA 65536
SCALARS solution double 1
LOOKUP_TABLE default
0
0
0
0
0
0
0
0
0
0
0
0
0
0
0
0
0
0
0
0
0
0
0
0
0
0
0
0
0
0
0
0
0
0
0
0
0
0
0
0
0
0
0
0
0
0
0
0
0
0
0
0
0
0
0
0
0
0
0
0
0
0
0
0
0
0
0
0
0
0
0
0
0
0
0
0
0
0
0
0
0
0
0
0
0
0
0
0
0
0
0
0
0
0
0
0
0
0
0
0
0
0
0
0
0
0
0
0
0
0
0
0
0
0
0
0
0
0
0
0
0
0
0
0
0
0
0
0
0
0
0
0
0
0
0
0
0
0
0
0
0
0
0
0
0
0
0
0
0
0
0
0
0
0
0
0
0
0
0
0
0
0
0
0
0
0
0
0
0
0
0
0
0
0
0
0
0
0
0
0
0
0
0
0
0
0
0
0
0
0
0
0
0
0
0
0
0
0
0
0
0
0
0
0
0
0
0
0
0
0
0
0
0
0
0
0
0
0
0
0
0
0
0
0
0
0
0
0
0
0
0
0
0
0
0
0
0
0
0
0
0
0
0
0
0
0
0
0
0
0
0
0
0
0
0
0
0
0.00060703
0.00121369
0.00181962
0.00242444
0.00302779
0.0036293
0.0042286
0.00482534
0.00541915
0.00600967
0.00659655
0.00717941
0.00775792
0.00833172
0.00890046
0.0094638
0.0100214
0.0105729
0.011118
0.0116563
0.0121876
0.0127115
0.0132276
0.0137357
0.0142355
0.0147266
0.0152088
0.0156818
0.0161452
0.0165989
0.0170424
0.0174756
0.0178983
0.01831
0.0187106
0.0190999
0.0194776
0.0198434
0.0201972
0.0205387
0.0208678
0.0211842
0.0214877
0.0217782
0.0220555
0.0223194
0.0225697
0.0228063
0.0230291
0.0232379
0.0234326
0.0236131
0.0237792
0.0239309
0.0240681
0.0241907
0.0242985
0.0243917
0.02447
0.0245334
0.024582
0.0246156
0.0246343
0.0246381
0.0246268
0.0246007
0.0245596
0.0245036
0.0244327
0.0243469
0.0242464
0.0241312
0.0240013
0.0238569
0.023698
0.0235247
0.0233371
0.0231353
0.0229195
0.0226898
0.0224463
0.0221891
0.0219185
0.0216346
0.0213376
0.0210276
0.0207048
0.0203695
0.0200218
0.019662
0.0192902
0.0189067
0.0185117
0.0181055
0.0176883
0.0172603
0.0168219
0.0163733
0.0159147
0.0154465
0.0149689
0.0144822
0.0139867
0.0134827
0.0129705
0.0124505
0.0119229
0.011388
0.0108463
0.0102979
0.00974333
0.00918283
0.00861675
0.00804543
0.00746923
0.0068885
0.00630359
0.00571485
0.00512264
0.00452732
0.00392925
0.00332879
0.00272632
0.00212219
0.00151677
0.00091043
0.000303538
-0.000303538
-0.00091043
-0.00151677
-0.00212219
-0.00272632
-0.00332879
-0.00392925
-0.00452732
-0.00512264
-0.00571485
-0.00630359
-0.0068885
-0.00746923
-0.00804543
-0.00861675
-0.00918283
-0.00974333
-0.0102979
-0.0108463
-0.011388
-0.0119229
-0.0124505
-0.0129705
-0.0134827
-0.0139867
-0.0144822
-0.0149689
-0.0154465
-0.0159147
-0.0163733
-0.0168219
-0.0172603
-0.0176883
-0.0181055
-0.0185117
-0.0189067
-0.0192902
-0.019662
-0.0200218
-0.0203695
-0.0207048
-0.0210276
-0.0213376
-0.0216346
-0.0219185
-0.0221891
-0.0224463
-0.0226898
-0.0229195
-0.0231353
-0.0233371
-0.0235247
-0.023698
-0.0238569
-0.0240013
-0.0241312
-0.0242464
-0.0243469
-0.0244327
-0.0245036
-0.0245596
-0.0246007
-0.0246268
-0.0246381
-0.0246343
-0.0246156
-0.024582
-0.0245334
-0.02447
-0.0243917
-0.0242985
-0.0241907
-0.0240681
-0.0239309
-0.0237792
-0.0236131
-0.0234326
-0.0232379
-0.0230291
-0.0228063
-0.0225697
-0.0223194
-0.0220555
-0.0217782
-0.0214877
-0.0211842
-0.0208678
-0.0205387
-0.0201972
-0.0198434
-0.0194776
-0.0190999
-0.0187106
-0.01831
-0.0178983
-0.0174756
-0.0170424
-0.0165989
-0.0161452
-0.0156818
-0.0152088
-0.0147266
-0.0142355
-0.0137357
-0.0132276
-0.0127115
-0.0121876
-0.0116563
-0.011118
-0.0105729
-0.0100214
-0.0094638
-0.00890046
-0.00833172
-0.00775792
-0.00717941
-0.00659655
-0.00600967
-0.00541915
-0.00482534
-0.0042286
-0.0036293
-0.00302779
-0.00242444
-0.00181962
-0.00121369
-0.00060703
0
0
0.00121369
0.00242665
0.00363813
0.0048474
0.00605373
0.00725639
0.00845464
0.00964776
0.010835
0.0120157
0.0131891
0.0143545
0.0155111
0.0166584
0.0177955
0.0189219
0.0200367
0.0211394
0.0222292
0.0233056
0.0243678
0.0254152
0.0264472
0.0274631
0.0284623
0.0294443
0.0304084
0.0313541
0.0322807
0.0331877
0.0340745
0.0349407
0.0357856
0.0366089
0.0374099
0.0381882
0.0389433
0.0396748
0.0403821
0.041065
0.0417229
0.0423555
0.0429624
0.0435432
0.0440976
0.0446252
0.0451257
0.0455988
0.0460443
0.0464618
0.046851
0.0472119
0.047544
0.0478473
0.0481216
0.0483666
0.0485823
0.0487685
0.0489251
0.049052
0.049149
0.0492163
0.0492537
0.0492612
0.0492387
0.0491864
0.0491042
0.0489922
0.0488505
0.0486791
0.0484782
0.0482478
0.0479881
0.0476993
0.0473815
0.047035
0.0466599
0.0462565
0.045825
0.0453657
0.0448789
0.0443648
0.0438238
0.0432561
0.0426622
0.0420424
0.0413971
0.0407267
0.0400315
0.039312
0.0385687
0.0378019
0.0370122
0.0362
0.0353658
0.0345102
0.0336336
0.0327366
0.0318198
0.0308836
0.0299286
0.0289555
0.0279648
0.0269572
0.0259332
0.0248934
0.0238385
0.0227691
0.0216859
0.0205896
0.0194808
0.0183601
0.0172283
0.016086
0.0149339
0.0137728
0.0126034
0.0114262
0.0102422
0.00905189
0.00785611
0.00665557
0.00545098
0.00424309
0.00303262
0.00182031
0.000606892
-0.000606892
-0.00182031
-0.00303262
-0.00424309
-0.00545098
-0.00665557
-0.00785611
-0.00905189
-0.0102422
-0.0114262
-0.0126034
-0.0137728
-0.0149339
-0.016086
-0.0172283
-0.0183601
-0.0194808
-0.0205896
-0.0216859
-0.0227691
-0.0238385
-0.0248934
-0.0259332
-0.0269572
-0.0279648
-0.0289555
-0.0299286
-0.0308836
-0.0318198
-0.0327366
-0.0336336
-0.0345102
-0.0353658
-0.0362
-0.0370122
-0.0378019
-0.0385687
-0.039312
-0.0400315
-0.0407267
-0.0413971
-0.0420424
-0.0426622
-0.0432561
-0.0438238
-0.0443648
-0.0448789
-0.0453657
-0.045825
-0.0462565
-0.0466599
-0.047035
-0.0473815
-0.0476993
-0.0479881
-0.0482478
-0.0484782
-0.0486791
-0.0488505
-0.0489922
-0.0491042
-0.0491864
-0.0492387
-0.0492612
-0.0492537
-0.0492163
-0.049149
-0.049052
-0.0489251
-0.0487685
-0.0485823
-0.0483666
-0.0481216
-0.0478473
-0.047544
-0.0472119
-0.046851
-0.0464618
-0.0460443
-0.0455988
-0.0451257
-0.0446252
-0.0440976
-0.0435432
-0.0429624
-0.0423555
-0.0417229
-0.041065
-0.0403821
-0.0396748
-0.0389433
-0.0381882
-0.0374099
-0.0366089
-0.0357856
-0.0349407
-0.0340745
-0.0331877
-0.0322807
-0.0313541
-0.0304084
-0.0294443
-0.0284623
-0.0274631
-0.0264472
-0.0254152
-0.0243678
-0.0233056
-0.0222292
-0.0211394
-0.0200367
-0.0189219
-0.0177955
-0.0166584
-0.0155111
-0.0143545
-0.0131891
-0.0120157
-0.010835
-0.00964776
-0.00845464
-0.00725639
-0.00605373
-0.0048474
-0.00363813
-0.00242665
-0.00121369
0
0
0.00181962
0.00363813
0.00545443
0.00726743
0.00907601
0.0108791
0.0126755
0.0144643
0.0162443
0.0180144
0.0197736
0.0215208
0.0232549
0.0249749
0.0266798
0.0283684
0.0300398
0.031693
0.033327
0.0349407
0.0365332
0.0381035
0.0396507
0.0411738
0.0426719
0.0441441
0.0455895
0.0470073
0.0483965
0.0497563
0.0510859
0.0523845
0.0536513
0.0548855
0.0560864
0.0572533
0.0583854
0.059482
0.0605426
0.0615663
0.0625527
0.0635012
0.064411
0.0652818
0.066113
0.066904
0.0676544
0.0683637
0.0690315
0.0696574
0.070241
0.070782
0.07128
0.0717347
0.0721459
0.0725132
0.0728366
0.0731157
0.0733505
0.0735407
0.0736863
0.0737871
0.0738431
0.0738544
0.0738207
0.0737423
0.0736191
0.0734512
0.0732387
0.0729817
0.0726804
0.072335
0.0719457
0.0715128
0.0710364
0.0705168
0.0699545
0.0693497
0.0687028
0.0680142
0.0672843
0.0665135
0.0657024
0.0648514
0.063961
0.0630317
0.0620642
0.0610591
0.0600168
0.0589382
0.0578237
0.0566741
0.0554902
0.0542725
0.0530219
0.0517391
0.0504249
0.0490801
0.0477055
0.0463019
0.0448702
0.0434113
0.041926
0.0404153
0.03888
0.0373212
0.0357396
0.0341364
0.0325125
0.0308688
0.0292063
0.0275262
0.0258293
0.0241168
0.0223896
0.0206488
0.0188955
0.0171307
0.0153555
0.013571
0.0117782
0.0099783
0.00817234
0.00636141
0.00454663
0.00272908
0.000909878
-0.000909878
-0.00272908
-0.00454663
-0.00636141
-0.00817234
-0.0099783
-0.0117782
-0.013571
-0.0153555
-0.0171307
-0.0188955
-0.0206488
-0.0223896
-0.0241168
-0.0258293
-0.0275262
-0.0292063
-0.0308688
-0.0325125
-0.0341364
-0.0357396
-0.0373212
-0.03888
-0.0404153
-0.041926
-0.0434113
-0.0448702
-0.0463019
-0.0477055
-0.0490801
-0.0504249
-0.0517391
-0.0530219
-0.0542725
-0.0554902
-0.0566741
-0.0578237
-0.0589382
-0.0600168
-0.0610591
-0.0620642
-0.0630317
-0.063961
-0.0648514
-0.0657024
-0.0665135
-0.0672843
-0.0680142
-0.0687028
-0.0693497
-0.0699545
-0.0705168
-0.0710364
-0.0715128
-0.0719457
-0.072335
-0.0726804
-0.0729817
-0.0732387
-0.0734512
-0.0736191
-0.0737423
-0.0738207
-0.0738544
-0.0738431
-0.0737871
-0.0736863
-0.0735407
-0.0733505
-0.0731157
-0.0728366
-0.0725132
-0.0721459
-0.0717347
-0.07128
-0.070782
-0.070241
-0.0696574
-0.0690315
-0.0683637
-0.0676544
-0.066904
-0.066113
-0.0652818
-0.064411
-0.0635012
-0.0625527
-0.0615663
-0.0605426
-0.059482
-0.0583854
-0.0572533
-0.0560864
-0.0548855
-0.0536513
-0.0523845
-0.0510859
-0.0497563
-0.0483965
-0.0470073
-0.0455895
-0.0441441
-0.0426719
-0.0411738
-0.0396507
-0.0381035
-0.0365332
-0.0349407
-0.033327
-0.031693
-0.0300398
-0.0283684
-0.0266798
-0.0249749
-0.0232549
-0.0215208
-0.0197736
-0.0180144
-0.0162443
-0.0144643
-0.0126755
-0.0108791
-0.00907601
-0.00726743
-0.00545443
-0.00363813
-0.00181962
0
0
0.00242444
0.0048474
0.00726743
0.00968304
0.0120928
0.0144952
0.0168888
0.0192721
0.0216437
0.0240022
0.0263462
0.0286741
0.0309846
0.0332763
0.0355478
0.0377978
0.0400247
0.0422274
0.0444045
0.0465546
0.0486764
0.0507687
0.0528301
0.0548595
0.0568556
0.0588171
0.060743
0.062632
0.0644829
0.0662947
0.0680663
0.0697965
0.0714844
0.0731289
0.0747289
0.0762836
0.077792
0.0792532
0.0806662
0.0820303
0.0833446
0.0846082
0.0858206
0.0869808
0.0880882
0.0891421
0.0901419
0.091087
0.0919768
0.0928107
0.0935883
0.0943091
0.0949726
0.0955785
0.0961263
0.0966158
0.0970467
0.0974186
0.0977314
0.0979848
0.0981788
0.0983131
0.0983878
0.0984027
0.0983579
0.0982534
0.0980892
0.0978655
0.0975824
0.09724
0.0968386
0.0963784
0.0958597
0.0952828
0.094648
0.0939558
0.0932066
0.0924008
0.0915388
0.0906213
0.0896488
0.0886219
0.0875411
0.0864072
0.0852209
0.0839828
0.0826937
0.0813544
0.0799658
0.0785285
0.0770437
0.075512
0.0739345
0.0723121
0.0706458
0.0689366
0.0671856
0.0653938
0.0635623
0.0616922
0.0597846
0.0578408
0.0558618
0.0538489
0.0518033
0.0497263
0.0476191
0.045483
0.0433192
0.0411292
0.0389142
0.0366756
0.0344147
0.0321329
0.0298316
0.0275122
0.0251761
0.0228247
0.0204595
0.0180818
0.0156931
0.013295
0.0108887
0.00847588
0.00605787
0.0036362
0.00121231
-0.00121231
-0.0036362
-0.00605787
-0.00847588
-0.0108887
-0.013295
-0.0156931
-0.0180818
-0.0204595
-0.0228247
-0.0251761
-0.0275122
-0.0298316
-0.0321329
-0.0344147
-0.0366756
-0.0389142
-0.0411292
-0.0433192
-0.045483
-0.0476191
-0.0497263
-0.0518033
-0.0538489
-0.0558618
-0.0578408
-0.0597846
-0.0616922
-0.0635623
-0.0653938
-0.0671856
-0.0689366
-0.0706458
-0.0723121
-0.0739345
-0.075512
-0.0770437
-0.0785285
-0.0799658
-0.0813544
-0.0826937
-0.0839828
-0.0852209
-0.0864072
-0.0875411
-0.0886219
-0.0896488
-0.0906213
-0.0915388
-0.0924008
-0.0932066
-0.0939558
-0.094648
-0.0952828
-0.0958597
-0.0963784
-0.0968386
-0.09724
-0.0975824
-0.0978655
-0.0980892
-0.0982534
-0.0983579
-0.0984027
-0.0983878
-0.0983131
-0.0981788
-0.0979848
-0.0977314
-0.0974186
-0.0970467
-0.0966158
-0.0961263
-0.0955785
-0.0949726
-0.0943091
-0.0935883
-0.0928107
-0.0919768
-0.091087
-0.0901419
-0.0891421
-0.0880882
-0.0869808
-0.0858206
-0.0846082
-0.0833446
-0.0820303
-0.0806662
-0.0792532
-0.077792
-0.0762836
-0.0747289
-0.0731289
-0.0714844
-0.0697965
-0.0680663
-0.0662947
-0.0644829
-0.062632
-0.060743
-0.0588171
-0.0568556
-0.0548595
-0.0528301
-0.0507687
-0.0486764
-0.0465546
-0.0444045
-0.0422274
-0.0400247
-0.0377978
-0.0355478
-0.0332763
-0.0309846
-0.0286741
-0.0263462
-0.0240022
-0.0216437
-0.0192721
-0.0168888
-0.0144952
-0.0120928
-0.00968304
-0.00726743
-0.0048474
-0.00242444
0
0
0.00302779
0.00605373
0.00907601
0.0120928
0.0151022
0.0181024
0.0210917
0.0240682
0.02703
0.0299754
0.0329027
0.03581
0.0386955
0.0415575
0.0443943
0.0472042
0.0499854
0.0527362
0.055455
0.0581402
0.0607901
0.063403
0.0659775
0.0685119
0.0710047
0.0734545
0.0758596
0.0782186
0.0805302
0.0827929
0.0850054
0.0871662
0.0892741
0.0913278
0.093326
0.0952677
0.0971514
0.0989762
0.100741
0.102444
0.104086
0.105664
0.107178
0.108627
0.11001
0.111326
0.112575
0.113755
0.114866
0.115908
0.116879
0.117779
0.118608
0.119364
0.120048
0.12066
0.121198
0.121662
0.122053
0.122369
0.122612
0.122779
0.122873
0.122891
0.122835
0.122705
0.1225
0.12222
0.121867
0.121439
0.120938
0.120363
0.119715
0.118995
0.118202
0.117338
0.116402
0.115396
0.114319
0.113173
0.111959
0.110676
0.109327
0.107911
0.106429
0.104883
0.103273
0.1016
0.0998661
0.0980713
0.0962168
0.094304
0.0923339
0.0903078
0.0882268
0.0860923
0.0839055
0.0816678
0.0793805
0.077045
0.0746627
0.0722351
0.0697636
0.0672498
0.0646952
0.0621013
0.0594696
0.0568019
0.0540997
0.0513647
0.0485984
0.0458027
0.0429792
0.0401295
0.0372555
0.0343589
0.0314415
0.0285049
0.025551
0.0225817
0.0195986
0.0166036
0.0135985
0.0105852
0.00756544
0.0045411
0.00151401
-0.00151401
-0.0045411
-0.00756544
-0.0105852
-0.0135985
-0.0166036
-0.0195986
-0.0225817
-0.025551
-0.0285049
-0.0314415
-0.0343589
-0.0372555
-0.0401295
-0.0429792
-0.0458027
-0.0485984
-0.0513647
-0.0540997
-0.0568019
-0.0594696
-0.0621013
-0.0646952
-0.0672498
-0.0697636
-0.0722351
-0.0746627
-0.077045
-0.0793805
-0.0816678
-0.0839055
-0.0860923
-0.0882268
-0.0903078
-0.0923339
-0.094304
-0.0962168
-0.0980713
-0.0998661
-0.1016
-0.103273
-0.104883
-0.106429
-0.107911
-0.109327
-0.110676
-0.111959
-0.113173
-0.114319
-0.115396
-0.116402
-0.117338
-0.118202
-0.118995
-0.119715
-0.120363
-0.120938
-0.121439
-0.121867
-0.12222
-0.1225
-0.122705
-0.122835
-0.122891
-0.122873
-0.122779
-0.122612
-0.122369
-0.122053
-0.121662
-0.121198
-0.12066
-0.120048
-0.119364
-0.118608
-0.117779
-0.116879
-0.115908
-0.114866
-0.113755
-0.112575
-0.111326
-0.11001
-0.108627
-0.107178
-0.105664
-0.104086
-0.102444
-0.100741
-0.0989762
-0.0971514
-0.0952677
-0.093326
-0.0913278
-0.0892741
-0.0871662
-0.0850054
-0.0827929
-0.0805302
-0.0782186
-0.0758596
-0.0734545
-0.0710047
-0.0685119
-0.0659775
-0.063403
-0.0607901
-0.0581402
-0.055455
-0.0527362
-0.0499854
-0.0472042
-0.0443943
-0.0415575
-0.0386955
-0.03581
-0.0329027
-0.0299754
-0.02703
-0.0240682
-0.0210917
-0.0181024
-0.0151022
-0.0120928
-0.00907601
-0.00605373
-0.00302779
0
0
0.0036293
0.00725639
0.0108791
0.0144952
0.0181024
0.0216987
0.0252819
0.0288496
0.0323999
0.0359305
0.0394392
0.0429241
0.0463828
0.0498135
0.0532138
0.0565819
0.0599156
0.063213
0.0664719
0.0696905
0.0728668
0.0759989
0.0790848
0.0821227
0.0851108
0.0880472
0.0909301
0.0937578
0.0965286
0.0992408
0.101893
0.104483
0.10701
0.109471
0.111867
0.114194
0.116452
0.118639
0.120754
0.122796
0.124764
0.126656
0.12847
0.130207
0.131865
0.133443
0.134939
0.136354
0.137686
0.138934
0.140098
0.141177
0.142171
0.143078
0.143898
0.14463
0.145275
0.145832
0.1463
0.14668
0.14697
0.147171
0.147283
0.147305
0.147238
0.147082
0.146836
0.146501
0.146077
0.145565
0.144964
0.144275
0.143499
0.142635
0.141685
0.140649
0.139527
0.138321
0.13703
0.135657
0.134201
0.132664
0.131046
0.129349
0.127573
0.125719
0.12379
0.121785
0.119706
0.117554
0.115332
0.113039
0.110677
0.108249
0.105754
0.103196
0.100574
0.0978922
0.0951505
0.092351
0.0894954
0.0865855
0.0836231
0.0806099
0.0775477
0.0744385
0.0712841
0.0680864
0.0648474
0.061569
0.0582532
0.054902
0.0515176
0.0481018
0.0446569
0.0411848
0.0376877
0.0341678
0.0306271
0.0270678
0.0234921
0.0199021
0.0163
0.0126881
0.00906842
0.00544326
0.00181479
-0.00181479
-0.00544326
-0.00906842
-0.0126881
-0.0163
-0.0199021
-0.0234921
-0.0270678
-0.0306271
-0.0341678
-0.0376877
-0.0411848
-0.0446569
-0.0481018
-0.0515176
-0.054902
-0.0582532
-0.061569
-0.0648474
-0.0680864
-0.0712841
-0.0744385
-0.0775477
-0.0806099
-0.0836231
-0.0865855
-0.0894954
-0.092351
-0.0951505
-0.0978922
-0.100574
-0.103196
-0.105754
-0.108249
-0.110677
-0.113039
-0.115332
-0.117554
-0.119706
-0.121785
-0.12379
-0.125719
-0.127573
-0.129349
-0.131046
-0.132664
-0.134201
-0.135657
-0.13703
-0.138321
-0.139527
-0.140649
-0.141685
-0.142635
-0.143499
-0.144275
-0.144964
-0.145565
-0.146077
-0.146501
-0.146836
-0.147082
-0.147238
-0.147305
-0.147283
-0.147171
-0.14697
-0.14668
-0.1463
-0.145832
-0.145275
-0.14463
-0.143898
-0.143078
-0.142171
-0.141177
-0.140098
-0.138934
-0.137686
-0.136354
-0.134939
-0.133443
-0.131865
-0.130207
-0.12847
-0.126656
-0.124764
-0.122796
-0.120754
-0.118639
-0.116452
-0.114194
-0.111867
-0.109471
-0.10701
-0.104483
-0.101893
-0.0992408
-0.0965286
-0.0937578
-0.0909301
-0.0880472
-0.0851108
-0.0821227
-0.0790848
-0.0759989
-0.0728668
-0.0696905
-0.0664719
-0.063213
-0.0599156
-0.0565819
-0.0532138
-0.0498135
-0.0463828
-0.0429241
-0.0394392
-0.0359305
-0.0323999
-0.0288496
-0.0252819
-0.0216987
-0.0181024
-0.0144952
-0.0108791
-0.00725639
-0.0036293
0
0
0.0042286
0.00845464
0.0126755
0.0168888
0.0210917
0.0252819
0.0294567
0.0336136
0.0377501
0.0418637
0.0459519
0.0500121
0.0540421
0.0580392
0.0620011
0.0659253
0.0698095
0.0736513
0.0774484
0.0811985
0.0848993
0.0885486
0.0921441
0.0956837
0.0991652
0.102586
0.105945
0.10924
0.112468
0.115629
0.118718
0.121736
0.12468
0.127548
0.130339
0.133051
0.135682
0.13823
0.140695
0.143074
0.145366
0.14757
0.149685
0.151708
0.15364
0.155478
0.157222
0.15887
0.160422
0.161877
0.163233
0.16449
0.165647
0.166704
0.16766
0.168513
0.169265
0.169913
0.170459
0.170901
0.171239
0.171474
0.171604
0.17163
0.171552
0.171369
0.171083
0.170693
0.170199
0.169602
0.168902
0.168099
0.167194
0.166188
0.165081
0.163874
0.162567
0.161162
0.159658
0.158058
0.156362
0.154571
0.152686
0.150708
0.148639
0.146479
0.144231
0.141895
0.139473
0.136966
0.134376
0.131705
0.128953
0.126124
0.123217
0.120236
0.117182
0.114057
0.110863
0.107601
0.104274
0.100883
0.0974318
0.093921
0.0903532
0.0867306
0.0830553
0.0793295
0.0755556
0.0717359
0.0678725
0.063968
0.0600247
0.0560449
0.0520311
0.0479856
0.0439111
0.0398099
0.0356845
0.0315375
0.0273713
0.0231885
0.0189917
0.0147833
0.0105659
0.0063421
0.00211446
-0.00211446
-0.0063421
-0.0105659
-0.0147833
-0.0189917
-0.0231885
-0.0273713
-0.0315375
-0.0356845
-0.0398099
-0.0439111
-0.0479856
-0.0520311
-0.0560449
-0.0600247
-0.063968
-0.0678725
-0.0717359
-0.0755556
-0.0793295
-0.0830553
-0.0867306
-0.0903532
-0.093921
-0.0974318
-0.100883
-0.104274
-0.107601
-0.110863
-0.114057
-0.117182
-0.120236
-0.123217
-0.126124
-0.128953
-0.131705
-0.134376
-0.136966
-0.139473
-0.141895
-0.144231
-0.146479
-0.148639
-0.150708
-0.152686
-0.154571
-0.156362
-0.158058
-0.159658
-0.161162
-0.162567
-0.163874
-0.165081
-0.166188
-0.167194
-0.168099
-0.168902
-0.169602
-0.170199
-0.170693
-0.171083
-0.171369
-0.171552
-0.17163
-0.171604
-0.171474
-0.171239
-0.170901
-0.170459
-0.169913
-0.169265
-0.168513
-0.16766
-0.166704
-0.165647
-0.16449
-0.163233
-0.161877
-0.160422
-0.15887
-0.157222
-0.155478
-0.15364
-0.151708
-0.149685
-0.14757
-0.145366
-0.143074
-0.140695
-0.13823
-0.135682
-0.133051
-0.130339
-0.127548
-0.12468
-0.121736
-0.118718
-0.115629
-0.112468
-0.10924
-0.105945
-0.102586
-0.0991652
-0.0956837
-0.0921441
-0.0885486
-0.0848993
-0.0811985
-0.0774484
-0.0736513
-0.0698095
-0.0659253
-0.0620011
-0.0580392
-0.0540421
-0.0500121
-0.0459519
-0.0418637
-0.0377501
-0.0336136
-0.0294567
-0.0252819
-0.0210917
-0.0168888
-0.0126755
-0.00845464
-0.0042286
0
0
0.00482534
0.00964776
0.0144643
0.0192721
0.0240682
0.0288496
0.0336136
0.0383571
0.0430774
0.0477715
0.0524366
0.0570698
0.0616685
0.0662297
0.0707506
0.0752287
0.079661
0.084045
0.088378
0.0926573
0.0968803
0.101045
0.105147
0.109187
0.113159
0.117063
0.120896
0.124656
0.12834
0.131946
0.135472
0.138916
0.142275
0.145548
0.148732
0.151827
0.154829
0.157737
0.160549
0.163264
0.16588
0.168395
0.170808
0.173117
0.175321
0.177419
0.179409
0.18129
0.183061
0.184721
0.186268
0.187703
0.189023
0.190229
0.19132
0.192294
0.193151
0.193892
0.194514
0.195019
0.195405
0.195672
0.195821
0.19585
0.195761
0.195553
0.195226
0.194781
0.194218
0.193536
0.192737
0.191821
0.190789
0.189641
0.188377
0.187
0.185508
0.183905
0.182189
0.180363
0.178427
0.176384
0.174233
0.171976
0.169615
0.16715
0.164585
0.161919
0.159155
0.156295
0.15334
0.150291
0.147151
0.143922
0.140606
0.137204
0.133719
0.130153
0.126508
0.122786
0.118989
0.11512
0.111181
0.107175
0.103104
0.09897
0.094776
0.0905245
0.086218
0.0818592
0.0774507
0.0729952
0.0684953
0.0639539
0.0593737
0.0547574
0.0501078
0.0454279
0.0407203
0.0359881
0.031234
0.0264609
0.0216718
0.0168695
0.012057
0.0072371
0.00241285
-0.00241285
-0.0072371
-0.012057
-0.0168695
-0.0216718
-0.0264609
-0.031234
-0.0359881
-0.0407203
-0.0454279
-0.0501078
-0.0547574
-0.0593737
-0.0639539
-0.0684953
-0.0729952
-0.0774507
-0.0818592
-0.086218
-0.0905245
-0.094776
-0.09897
-0.103104
-0.107175
-0.111181
-0.11512
-0.118989
-0.122786
-0.126508
-0.130153
-0.133719
-0.137204
-0.140606
-0.143922
-0.147151
-0.150291
-0.15334
-0.156295
-0.159155
-0.161919
-0.164585
-0.16715
-0.169615
-0.171976
-0.174233
-0.176384
-0.178427
-0.180363
-0.182189
-0.183905
-0.185508
-0.187
-0.188377
-0.189641
-0.190789
-0.191821
-0.192737
-0.193536
-0.194218
-0.194781
-0.195226
-0.195553
-0.195761
-0.19585
-0.195821
-0.195672
-0.195405
-0.195019
-0.194514
-0.193892
-0.193151
-0.192294
-0.19132
-0.190229
-0.189023
-0.187703
-0.186268
-0.184721
-0.183061
-0.18129
-0.179409
-0.177419
-0.175321
-0.173117
-0.170808
-0.168395
-0.16588
-0.163264
-0.160549
-0.157737
-0.154829
-0.151827
-0.148732
-0.145548
-0.142275
-0.138916
-0.135472
-0.131946
-0.12834
-0.124656
-0.120896
-0.117063
-0.113159
-0.109187
-0.105147
-0.101045
-0.0968803
-0.0926573
-0.088378
-0.084045
-0.079661
-0.0752287
-0.0707506
-0.0662297
-0.0616685
-0.0570698
-0.0524366
-0.0477715
-0.0430774
-0.0383571
-0.0336136
-0.0288496
-0.0240682
-0.0192721
-0.0144643
-0.00964776
-0.00482534
0
0
0.00541915
0.010835
0.0162443
0.0216437
0.02703
0.0323999
0.0377501
0.0430774
0.0483785
0.0536503
0.0588895
0.0640929
0.0692574
0.0743799
0.0794573
0.0844863
0.0894641
0.0943876
0.0992538
0.10406
0.108802
0.113479
0.118087
0.122623
0.127085
0.131469
0.135774
0.139996
0.144134
0.148183
0.152143
0.156011
0.159783
0.163459
0.167036
0.170511
0.173882
0.177148
0.180307
0.183356
0.186293
0.189118
0.191828
0.194421
0.196896
0.199252
0.201487
0.2036
0.205588
0.207452
0.209191
0.210802
0.212285
0.213639
0.214864
0.215958
0.216921
0.217752
0.218451
0.219018
0.219451
0.219751
0.219918
0.219952
0.219852
0.219618
0.219251
0.218751
0.218118
0.217353
0.216456
0.215427
0.214268
0.212978
0.211559
0.210012
0.208337
0.206536
0.204609
0.202559
0.200385
0.198089
0.195674
0.193139
0.190487
0.18772
0.184839
0.181845
0.178741
0.175529
0.17221
0.168786
0.16526
0.161634
0.157909
0.154089
0.150175
0.14617
0.142076
0.137896
0.133632
0.129287
0.124863
0.120364
0.115792
0.111149
0.106439
0.101664
0.0968281
0.0919329
0.0869818
0.081978
0.0769244
0.0718241
0.0666802
0.0614959
0.0562741
0.0510183
0.0457314
0.0404168
0.0350776
0.0297172
0.0243387
0.0189455
0.0135407
0.0081277
0.00270978
-0.00270978
-0.0081277
-0.0135407
-0.0189455
-0.0243387
-0.0297172
-0.0350776
-0.0404168
-0.0457314
-0.0510183
-0.0562741
-0.0614959
-0.0666802
-0.0718241
-0.0769244
-0.081978
-0.0869818
-0.0919329
-0.0968281
-0.101664
-0.106439
-0.111149
-0.115792
-0.120364
-0.124863
-0.129287
-0.133632
-0.137896
-0.142076
-0.14617
-0.150175
-0.154089
-0.157909
-0.161634
-0.16526
-0.168786
-0.17221
-0.175529
-0.178741
-0.181845
-0.184839
-0.18772
-0.190487
-0.193139
-0.195674
-0.198089
-0.200385
-0.202559
-0.204609
-0.206536
-0.208337
-0.210012
-0.211559
-0.212978
-0.214268
-0.215427
-0.216456
-0.217353
-0.218118
-0.218751
-0.219251
-0.219618
-0.219852
-0.219952
-0.219918
-0.219751
-0.219451
-0.219018
-0.218451
-0.217752
-0.216921
-0.215958
-0.214864
-0.213639
-0.212285
-0.210802
-0.209191
-0.207452
-0.205588
-0.2036
-0.201487
-0.199252
-0.196896
-0.194421
-0.191828
-0.189118
-0.186293
-0.183356
-0.180307
-0.177148
-0.173882
-0.170511
-0.167036
-0.163459
-0.159783
-0.156011
-0.152143
-0.148183
-0.144134
-0.139996
-0.135774
-0.131469
-0.127085
-0.122623
-0.118087
-0.113479
-0.108802
-0.10406
-0.0992538
-0.0943876
-0.0894641
-0.0844863
-0.0794573
-0.0743799
-0.0692574
-0.0640929
-0.0588895
-0.0536503
-0.0483785
-0.0430774
-0.0377501
-0.0323999
-0.02703
-0.0216437
-0.0162443
-0.010835
-0.00541915
0
0
0.00600967
0.0120157
0.0180144
0.0240022
0.0299754
0.0359305
0.0418637
0.0477715
0.0536503
0.0594965
0.0653066
0.0710771
0.0768044
0.082485
0.0881156
0.0936927
0.099213
0.104673
0.110069
0.115399
0.120659
0.125845
0.130955
0.135985
0.140933
0.145795
0.150569
0.155252
0.15984
0.164331
0.168722
0.173011
0.177195
0.181271
0.185237
0.189091
0.19283
0.196452
0.199955
0.203336
0.206594
0.209726
0.212731
0.215607
0.218352
0.220965
0.223443
0.225786
0.227991
0.230058
0.231986
0.233773
0.235417
0.236919
0.238277
0.23949
0.240558
0.24148
0.242256
0.242884
0.243365
0.243698
0.243883
0.24392
0.243809
0.24355
0.243143
0.242588
0.241886
0.241038
0.240043
0.238902
0.237616
0.236186
0.234613
0.232897
0.23104
0.229042
0.226906
0.224631
0.222221
0.219675
0.216996
0.214185
0.211245
0.208176
0.20498
0.201661
0.198218
0.194656
0.190975
0.187178
0.183268
0.179247
0.175116
0.17088
0.166539
0.162098
0.157558
0.152922
0.148194
0.143375
0.13847
0.13348
0.12841
0.123261
0.118038
0.112743
0.107379
0.101951
0.0964602
0.0909111
0.0853068
0.0796507
0.0739463
0.068197
0.0624063
0.0565777
0.0507147
0.044821
0.0389
0.0329555
0.0269909
0.0210099
0.0150162
0.00901337
0.00300506
-0.00300506
-0.00901337
-0.0150162
-0.0210099
-0.0269909
-0.0329555
-0.0389
-0.044821
-0.0507147
-0.0565777
-0.0624063
-0.068197
-0.0739463
-0.0796507
-0.0853068
-0.0909111
-0.0964602
-0.101951
-0.107379
-0.112743
-0.118038
-0.123261
-0.12841
-0.13348
-0.13847
-0.143375
-0.148194
-0.152922
-0.157558
-0.162098
-0.166539
-0.17088
-0.175116
-0.179247
-0.183268
-0.187178
-0.190975
-0.194656
-0.198218
-0.201661
-0.20498
-0.208176
-0.211245
-0.214185
-0.216996
-0.219675
-0.222221
-0.224631
-0.226906
-0.229042
-0.23104
-0.232897
-0.234613
-0.236186
-0.237616
-0.238902
-0.240043
-0.241038
-0.241886
-0.242588
-0.243143
-0.24355
-0.243809
-0.24392
-0.243883
-0.243698
-0.243365
-0.242884
-0.242256
-0.24148
-0.240558
-0.23949
-0.238277
-0.236919
-0.235417
-0.233773
-0.231986
-0.230058
-0.227991
-0.225786
-0.223443
-0.220965
-0.218352
-0.215607
-0.212731
-0.209726
-0.206594
-0.203336
-0.199955
-0.196452
-0.19283
-0.189091
-0.185237
-0.181271
-0.177195
-0.173011
-0.168722
-0.164331
-0.15984
-0.155252
-0.150569
-0.145795
-0.140933
-0.135985
-0.130955
-0.125845
-0.120659
-0.115399
-0.110069
-0.104673
-0.099213
-0.0936927
-0.0881156
-0.082485
-0.0768044
-0.0710771
-0.0653066
-0.0594965
-0.0536503
-0.0477715
-0.0418637
-0.0359305
-0.0299754
-0.0240022
-0.0180144
-0.0120157
-0.00600967
0
0
0.00659655
0.0131891
0.0197736
0.0263461
0.0329027
0.0394392
0.0459519
0.0524366
0.0588895
0.0653066
0.0716841
0.078018
0.0843047
0.0905401
0.0967205
0.102842
0.108902
0.114895
0.120818
0.126668
0.132441
0.138134
0.143743
0.149265
0.154696
0.160033
0.165273
0.170413
0.175449
0.180378
0.185199
0.189906
0.194499
0.198973
0.203327
0.207557
0.211661
0.215636
0.219481
0.223193
0.226769
0.230207
0.233505
0.236662
0.239675
0.242543
0.245263
0.247835
0.250256
0.252525
0.25464
0.256601
0.258407
0.260055
0.261546
0.262878
0.26405
0.265062
0.265913
0.266603
0.26713
0.267496
0.267699
0.26774
0.267618
0.267333
0.266887
0.266278
0.265508
0.264576
0.263484
0.262232
0.26082
0.259251
0.257524
0.25564
0.253602
0.251409
0.249064
0.246568
0.243921
0.241127
0.238187
0.235102
0.231874
0.228505
0.224998
0.221354
0.217575
0.213665
0.209625
0.205457
0.201165
0.196751
0.192217
0.187567
0.182802
0.177927
0.172944
0.167855
0.162665
0.157376
0.151992
0.146515
0.140949
0.135298
0.129565
0.123753
0.117865
0.111907
0.10588
0.099789
0.0936374
0.087429
0.0811675
0.0748567
0.0685005
0.0621027
0.0556672
0.049198
0.0426988
0.0361737
0.0296267
0.0230616
0.0164826
0.00989357
0.00329852
-0.00329852
-0.00989357
-0.0164826
-0.0230616
-0.0296267
-0.0361737
-0.0426988
-0.049198
-0.0556672
-0.0621027
-0.0685005
-0.0748567
-0.0811675
-0.087429
-0.0936374
-0.099789
-0.10588
-0.111907
-0.117865
-0.123753
-0.129565
-0.135298
-0.140949
-0.146515
-0.151992
-0.157376
-0.162665
-0.167855
-0.172944
-0.177927
-0.182802
-0.187567
-0.192217
-0.196751
-0.201165
-0.205457
-0.209625
-0.213665
-0.217575
-0.221354
-0.224998
-0.228505
-0.231874
-0.235102
-0.238187
-0.241127
-0.243921
-0.246568
-0.249064
-0.251409
-0.253602
-0.25564
-0.257524
-0.259251
-0.26082
-0.262232
-0.263484
-0.264576
-0.265508
-0.266278
-0.266887
-0.267333
-0.267618
-0.26774
-0.267699
-0.267496
-0.26713
-0.266603
-0.265913
-0.265062
-0.26405
-0.262878
-0.261546
-0.260055
-0.258407
-0.256601
-0.25464
-0.252525
-0.250256
-0.247835
-0.245263
-0.242543
-0.239675
-0.236662
-0.233505
-0.230207
-0.226769
-0.223193
-0.219481
-0.215636
-0.211661
-0.207557
-0.203327
-0.198973
-0.194499
-0.189906
-0.185199
-0.180378
-0.175449
-0.170413
-0.165273
-0.160033
-0.154696
-0.149265
-0.143743
-0.138134
-0.132441
-0.126668
-0.120818
-0.114895
-0.108902
-0.102842
-0.0967205
-0.0905401
-0.0843047
-0.078018
-0.0716841
-0.0653066
-0.0588895
-0.0524366
-0.0459519
-0.0394392
-0.0329027
-0.0263461
-0.0197736
-0.0131891
-0.00659655
0
0
0.00717941
0.0143545
0.0215208
0.0286741
0.0358099
0.0429241
0.0500121
0.0570698
0.0640929
0.071077
0.078018
0.0849117
0.0917538
0.0985401
0.105267
0.111929
0.118524
0.125047
0.131494
0.137861
0.144144
0.15034
0.156444
0.162454
0.168365
0.174173
0.179876
0.18547
0.190951
0.196317
0.201563
0.206686
0.211685
0.216554
0.221292
0.225896
0.230363
0.23469
0.238874
0.242914
0.246806
0.250548
0.254138
0.257573
0.260853
0.263974
0.266934
0.269733
0.272368
0.274837
0.27714
0.279275
0.281239
0.283034
0.284656
0.286105
0.287381
0.288483
0.289409
0.290159
0.290734
0.291132
0.291353
0.291397
0.291264
0.290955
0.290469
0.289806
0.288968
0.287954
0.286765
0.285402
0.283866
0.282158
0.280278
0.278229
0.27601
0.273623
0.271071
0.268354
0.265474
0.262433
0.259233
0.255875
0.252362
0.248696
0.244878
0.240912
0.2368
0.232544
0.228147
0.223611
0.21894
0.214136
0.209201
0.20414
0.198955
0.193649
0.188225
0.182687
0.177038
0.171282
0.165422
0.159461
0.153404
0.147253
0.141013
0.134687
0.12828
0.121795
0.115235
0.108606
0.101911
0.0951542
0.0883394
0.081471
0.0745532
0.0675901
0.060586
0.0535451
0.0464716
0.03937
0.0322445
0.0250993