# vtk DataFile Version 3.0
Laplace Solution with Jacobi
ASCII
DATASET STRUCTURED_POINTS
DIMENSIONS 32 32 1
ORIGIN 0.0 0.0 0.0
SPACING 0.0322581 0.0322581 1.0
POINT_DATA 1024
SCALARS solution double 1
LOOKUP_TABLE default
5.48583e-310
5.48583e-310
5.48583e-310
5.48583e-310
5.48583e-310
5.48583e-310
5.48583e-310
5.48583e-310
5.48583e-310
5.48583e-310
5.48583e-310
5.48583e-310
5.48583e-310
5.48583e-310
5.48583e-310
5.48583e-310
5.48583e-310
5.48583e-310
5.48583e-310
5.48583e-310
5.48583e-310
5.48583e-310
5.48583e-310
5.48583e-310
5.48583e-310
5.48583e-310
5.48583e-310
5.48583e-310
5.48583e-310
5.48583e-310
5.48583e-310
5.48583e-310
5.48583e-310
5.48583e-310
5.48583e-310
5.48583e-310
5.48583e-310
5.48583e-310
5.48583e-310
5.48583e-310
5.48583e-310
5.48583e-310
5.48583e-310
5.48583e-310
5.48583e-310
5.48583e-310
5.48583e-310
5.48583e-310
0
4.00193e-322
5.48583e-310
5.48583e-310
5.48583e-310
5.48583e-310
5.48583e-310
5.48583e-310
5.48583e-310
5.48583e-310
0
1.0326e-321
8.73983e+183
7.33951e+223
8.70651e+183
1.64657e+161
1.58056e+190
6.25022e-85
1.69601e+161
7.35416e+223
1.58056e+190
2.45593e+198
4.23201e+175
5.32817e+233
6.98118e+194
6.22954e+228
1.94162e+227
9.08367e+223
6.20204e+223
3.14634e+161
7.20362e+159
1.07907e+219
7.20101e+252
8.44747e+252
2.35287e+251
3.2942e+180
6.10948e-310
1.63042e-322
1.6976e-313
5.48583e-310
5.48578e-310
7.95446e-322
5.48583e-310
5.48583e-310
5.48583e-310
6.10948e-310
1.42291e-321
2.37152e-322
1.33931e-313
6.07317e+87
2.60551e+97
6.37115e-67
5.98372e-315
3.21143e-322
6.10948e-310
5.48583e-310
0
1.63042e-322
5.48583e-310
6.10948e-310
7.90505e-322
4.00193e-322
5.48583e-310
5.48583e-310
5.48583e-310
5.48583e-310
5.48583e-310
5.48583e-310
5.48583e-310
5.48583e-310
0
1.0326e-321
8.73983e+183
4.7859e+180
8.70651e+183
1.64657e+161
1.15314e+214
1.02809e+248
3.75815e+193
7.2671e+199
1.15313e+214
1.75468e-152
2.52174e+180
5.74371e+257
2.9733e+222
7.62862e+228
4.24433e+175
9.75024e+199
1.96926e+243
7.10588e+159
3.68066e+180
5.8302e+252
2.97043e+222
6.23103e+228
4.7859e+180
5.38896e+228
9.85683e-313
1.63042e-322
1.6976e-313
5.48583e-310
5.48578e-310
7.95446e-322
5.48583e-310
5.48583e-310
5.48583e-310
6.10948e-310
1.42291e-321
2.37152e-322
5.48546e-310
6.07317e+87
2.60551e+97
6.37115e-67
5.98372e-315
3.21143e-322
6.10948e-310
5.48583e-310
0
1.63042e-322
5.48583e-310
6.10948e-310
7.90505e-322
4.00193e-322
5.48583e-310
5.48583e-310
5.48583e-310
5.48583e-310
5.48583e-310
5.48583e-310
5.48583e-310
5.48583e-310
0
1.0326e-321
8.73983e+183
7.33951e+223
8.70651e+183
1.64657e+161
1.15314e+214
1.02809e+248
3.75815e+193
7.2671e+199
1.15313e+214
1.75468e-152
2.52174e+180
5.74371e+257
3.10427e+169
3.90659e+233
1.21698e-152
4.82407e+228
4.78416e+180
1.68521e+262
1.27826e-152
1.49005e+195
5.7095e+228
1.6771e+243
1.81456e-152
5.60579e+199
5.48578e-310
7.16395e-322
5.48583e-310
5.48583e-310
5.48583e-310
6.10948e-310
0
1.63042e-322
5.48583e-310
6.10948e-310
1.42291e-321
2.37152e-322
5.48546e-310
6.07317e+87
2.60551e+97
6.37115e-67
5.98372e-315
3.21143e-322
6.10948e-310
2.42092e-322
5.48583e-310
5.48583e-310
5.48583e-310
0
2.37152e-322
4.00193e-322
4.94066e-324
0
5.48583e-310
5.48583e-310
5.48583e-310
5.48583e-310
5.48583e-310
5.48583e-310
5.48583e-310
4.00193e-322
4.94066e-324
5.48583e-310
2.122e-314
2.54639e-313
3.16202e-322
2.42843e-319
2.122e-314
2.97079e-313
2.122e-314
4.00193e-322
4.94066e-324
6.10948e-310
4.24399e-314
2.97079e-313
2.122e-314
2.122e-313
5.48578e-310
6.47582e-318
6.36599e-314
2.42092e-322
1.6976e-313
5.48583e-310
0
9.32518e-317
2.37152e-322
1.63042e-322
1.6976e-313
5.48583e-310
5.48578e-310
4.00193e-322
4.94066e-324
6.10948e-310
2.122e-314
2.54639e-313
3.16202e-322
2.42843e-319
2.122e-314
2.97079e-313
2.122e-314
4.00193e-322
4.94066e-324
6.10948e-310
4.24399e-314
2.97079e-313
2.122e-314
2.122e-313
5.48578e-310
6.47582e-318
6.36599e-314
2.42092e-322
1.6976e-313
5.48583e-310
5.48578e-310
9.32518e-317
2.37152e-322
1.63042e-322
3.82347e+45
8.98502e-315
5.48578e-310
4.00193e-322
4.94066e-324
0
0
0
0
0
7.11455e-322
1.58101e-322
5.48546e-310
1.63042e-322
6.10948e-310
6.10948e-310
5.48583e-310
1.63042e-322
2.50444e+262
4.99006e-322
5.48578e-310
1.63042e-322
6.10948e-310
6.10948e-310
5.48583e-310
1.63042e-322
2.50444e+262
4.99006e-322
5.48578e-310
1.63042e-322
6.10948e-310
6.10948e-310
5.48583e-310
1.63042e-322
2.50444e+262
4.99006e-322
5.48578e-310
1.63042e-322
6.10948e-310
6.10948e-310
5.48546e-310
1.63042e-322
2.50444e+262
4.99006e-322
0
1.63042e-322
6.10948e-310
6.10948e-310
0
1.63042e-322
2.50444e+262
4.99006e-322
0
1.63042e-322
6.10948e-310
6.10948e-310
5.48583e-310
1.63042e-322
2.50444e+262
4.99006e-322
5.48578e-310
1.63042e-322
6.10948e-310
6.10948e-310
0
1.63042e-322
2.50444e+262
4.99006e-322
0
1.63042e-322
2.50444e+262
4.99006e-322
5.48536e-310
1.63042e-322
6.10948e-310
6.10948e-310
5.48583e-310
2.42092e-322
9.04038e+223
2.19528e-152
9.08925e+223
5.99249e-38
2.37152e-322
1.63042e-322
5.48583e-310
0
0
1.63042e-322
5.48583e-310
0
0
1.63042e-322
5.48583e-310
0
0
1.63042e-322
5.48583e-310
0
0
2.42092e-322
2.09029e-76
7.26816e-43
1.22105e+165
9.68038e-71
0
1.63042e-322
5.48583e-310
0
0
1.63042e-322
1.6976e-313
5.48583e-310
0
4.00193e-322
4.94066e-324
0
5.48583e-310
5.48583e-310
5.48583e-310
5.48583e-310
5.48583e-310
5.48583e-310
5.48583e-310
1.63042e-322
2.50444e+262
4.99006e-322
0
1.63042e-322
6.10948e-310
6.10948e-310
1.58101e-322
1.63042e-322
1.6976e-313
5.48583e-310
0
1.63042e-322
5.48583e-310
6.08428e-310
0
1.63042e-322
5.48583e-310
0
0
1.63042e-322
5.48583e-310
0
0
1.63042e-322
5.48583e-310
5.48583e-310
0
1.63042e-322
5.48583e-310
0
0
1.63042e-322
5.48583e-310
0
0
2.42092e-322
0
0
0
0
0
1.63042e-322
5.48583e-310
5.48583e-310
0
1.63042e-322
5.48583e-310
0
0
7.16395e-322
5.48583e-310
5.48583e-310
5.48583e-310
5.48583e-310
5.48583e-310
5.48583e-310
5.48583e-310
5.48583e-310
5.48583e-310
5.48583e-310
0
0
0
0
0
0
7.11455e-322
1.63042e-322
5.48583e-310
5.48583e-310
0
1.63042e-322
5.48583e-310
0
0
1.63042e-322
5.48583e-310
5.48583e-310
0
1.63042e-322
5.48583e-310
0
0
1.63042e-322
5.48583e-310
0
0
1.63042e-322
5.48583e-310
5.48583e-310
0
1.63042e-322
5.03624e-310
5.03624e-310
5.03624e-310
5.03624e-310
5.03624e-310
5.03624e-310
5.03624e-310
5.03624e-310
5.03624e-310
5.03624e-310
5.03624e-310
5.03624e-310
5.03624e-310
5.03624e-310
5.03624e-310
5.03624e-310
5.03624e-310
5.03624e-310
5.03624e-310
5.03624e-310
5.03624e-310
5.03624e-310
5.03624e-310
5.03624e-310
5.03624e-310
5.03624e-310
5.03624e-310
5.03624e-310
5.03624e-310
5.03624e-310
5.03624e-310
5.03624e-310
5.03624e-310
5.03624e-310
5.03624e-310
5.03624e-310
5.03624e-310
5.03624e-310
5.03624e-310
5.03624e-310
5.03624e-310
5.03624e-310
5.03624e-310
5.03624e-310
5.03624e-310
5.03624e-310
5.03624e-310
5.03624e-310
0
1.63042e-322
1.14202e+257
9.48234e-315
1.58101e-322
1.26975e-321
7.90505e-323
5.03624e-310
2.122e-314
5.03624e-310
0
5.03624e-310
6.36599e-314
5.03624e-310
5.03624e-310
5.03624e-310
1.97626e-323
5.03624e-310
5.03624e-310
0
0
0
0
0
0
0
0
0
0
0
0
0
0
5.03624e-310
3.45846e-323
0
2.96439e-322
1.3488e-321
6.88971e-310
4.94066e-324
2.77489e-316
0
0
0
0
0
2.47033e-323
0
5.03624e-310
0
5.03624e-310
0
0
0
0
0
0
0
0
0
0
0
0
0
0
0
0
0
0
0
2.122e-314
1.63042e-322
4.99782e-310
0
1.58101e-322
2.42092e-322
0
0
0
0
0
2.69266e-321
5.03513e-310
3.42218e+183
2.54639e-313
5.03624e-310
5.03624e-310
2.97079e-313
5.03624e-310
5.03624e-310
2.122e-314
0
0
0
5.03624e-310
5.03624e-310
1.061e-313
5.03624e-310
5.03624e-310
3.39519e-313
5.03624e-310
5.03624e-310
2.75859e-313
5.03624e-310
5.03624e-310
1.2732e-313
5.03624e-310
5.03624e-310
3.81959e-313
5.03624e-310
5.03624e-310
2.122e-313
5.03624e-310
5.03624e-310
8.48798e-314
5.03624e-310
5.03624e-310
4.24399e-314
0
0
0
5.03624e-310
5.03624e-310
1.9098e-313
5.03624e-310
5.03624e-310
1.4854e-313
0
0
0
5.03624e-310
5.03624e-310
1.6976e-313
0
0
0
5.03624e-310
5.03624e-310
4.03179e-313
5.03624e-310
5.03624e-310
-nan
7.74682e-304
-5.83034e+303
1.06183e-313
4.52169e-307
5.03513e-310
4.52169e-307
2.68772e-321
5.14322e-321
5.03513e-310
3.42218e+183
0
0
0
0
0
0
0
0
0
0
0
0
0
0
0
0
0
0
0
0
0
0
0
0
0
0
0
0
0
0
0
0
0
0
0
0
0
0
0
0
0
0
0
0
0
0
0
0
0
0
0
0
0
0
0
0
0
0
0
0
0
0
0
0
0
0
0
0
0
0
0
0
0
0
0
0
0
0
0
0
0
0
0
0
0
0
0
0
0
0
0
0
0
0
0
0
0
0
0
0
0
0
0
0
0
0
0
0
0
0
0
0
0
0
0
0
0
0
-nan
-nan
-nan
-nan
-nan
0
0
0
0
2.61361e-321
5.03513e-310
3.42218e+183
3.81959e-313
5.03624e-310
5.03624e-310
8.48798e-314
5.03624e-310
5.03624e-310
2.47033e-323
5.03624e-310
5.03624e-310
2.122e-314
5.03624e-310
5.03624e-310
2.75859e-313
5.03624e-310
5.03624e-310
4.24399e-314
0
0
0
0
0
0
5.03624e-310
5.03624e-310
1.9098e-313
5.03624e-310
5.03624e-310
6.36599e-314
5.03624e-310
5.03624e-310
3.60739e-313
0
0
0
5.03624e-310
5.03624e-310
3.39519e-313
5.03624e-310
5.03624e-310
2.54639e-313
0
0
0
5.03624e-310
5.03624e-310
2.3342e-313
5.03624e-310
5.03624e-310
4.03179e-313
5.03624e-310
5.03624e-310
1.061e-313
5.03624e-310
5.03624e-310
1.6976e-313
5.03624e-310
5.03624e-310
-nan
-nan
7.06328e-304
1.26481e-321
0
0
4.79244e-322
9.30214e+242
2.45884e+198
2.34727e+251
1.94627e+227
7.35424e+223
9.71912e+189
1.81364e-152
1.81456e-152
4.7666e+180
5.04621e+180
4.94066e-322
7.95446e-322
1.12389e+219
5.28559e+180
2.45185e+198
8.8012e+223
2.87559e-14
2.61646e+180
1.17567e+214
5.44348e+257
9.09225e+130
4.08841e+233
7.26607e+223
5.08654e+59
7.48963e+247
1.27731e-153
9.17716e+170
7.67662e+170
6.02202e+175
1.04765e-312
7.90505e-322
1.63042e-322
5.03507e-310
0
5.94275e-310
7.16395e-322
8.73983e+183
7.33951e+223
8.70651e+183
7.74119e+228
4.43911e+228
1.13557e-153
6.08533e+247
1.69375e+190
4.43911e+228
8.78418e+247
1.21697e-152
4.08841e+233
1.71431e+161
1.87587e-152
3.86596e+233
4.89584e-85
0
1.63042e-322
4.7322e+164
2.10494e+262
3.28286e-317
2.42092e-322
8.88798e+247
1.87425e-152
2.60987e+180
8.40413e-315
2.37152e-322
1.63042e-322
1.14202e+257
9.48234e-315
1.58101e-322
5.14322e-321
5.03513e-310
3.42218e+183
6.36961e+151
2.05951e-27
5.91217e+232
2.02647e+267
4.13001e-27
9.39908e+218
6.07781e+180
1.39804e-76
1.39804e-76
1.39804e-76
1.39669e-76
1.21719e-76
7.57881e-96
1.39804e-76
1.39804e-76
1.39804e-76
1.39804e-76
1.39804e-76
1.39804e-76
1.39669e-76
1.21719e-76
7.57881e-96
1.39804e-76
1.39804e-76
1.39804e-76
1.39804e-76
1.39804e-76
1.39804e-76
1.39669e-76
1.21719e-76
7.57881e-96
1.39804e-76
1.39804e-76
1.39804e-76
1.39804e-76
1.39804e-76
1.39804e-76
1.39669e-76
1.21719e-76
7.57881e-96
1.39804e-76
1.39804e-76
1.39804e-76
6.35932e+151
3.33826e+151
1.30371e-259
9.31111e+242
5.49826e+247
