# vtk DataFile Version 3.0
Laplace Solution with Jacobi
ASCII
DATASET STRUCTURED_POINTS
DIMENSIONS 32 32 1
ORIGIN 0.0 0.0 0.0
SPACING 0.03125 0.03125 1.0
POINT_DATA 1024
SCALARS solution double 1
LOOKUP_TABLE default
5.50168e-310
5.50168e-310
5.50168e-310
5.50168e-310
5.50168e-310
5.50168e-310
5.50168e-310
5.50168e-310
5.50168e-310
5.50168e-310
5.50168e-310
5.50168e-310
5.50168e-310
5.50168e-310
5.50168e-310
5.50168e-310
5.50168e-310
5.50168e-310
5.50168e-310
5.50168e-310
5.50168e-310
5.50168e-310
5.50168e-310
5.50168e-310
5.50168e-310
5.50168e-310
5.50168e-310
5.50168e-310
5.50168e-310
5.50168e-310
5.50168e-310
5.50168e-310
5.50168e-310
5.50168e-310
5.50168e-310
5.50168e-310
5.50168e-310
5.50168e-310
5.50168e-310
5.50168e-310
5.50168e-310
5.50168e-310
5.50168e-310
5.50168e-310
5.50168e-310
5.50168e-310
5.50168e-310
5.50168e-310
5.50168e-310
5.50168e-310
5.50168e-310
5.50168e-310
5.50168e-310
5.50168e-310
5.50168e-310
5.50168e-310
5.50168e-310
5.50168e-310
5.50168e-310
5.50168e-310
5.50168e-310
5.50168e-310
5.50168e-310
5.50168e-310
5.50168e-310
5.50168e-310
5.50168e-310
5.50168e-310
5.50168e-310
5.50168e-310
5.50168e-310
5.50168e-310
5.50168e-310
5.50168e-310
5.50168e-310
5.50168e-310
5.50168e-310
5.50168e-310
5.50168e-310
5.50168e-310
5.50168e-310
5.50168e-310
5.50168e-310
5.50168e-310
5.50168e-310
5.50168e-310
5.50168e-310
5.50168e-310
5.50168e-310
5.50168e-310
5.50168e-310
5.50168e-310
5.50168e-310
5.50168e-310
5.50168e-310
5.50168e-310
0
1.3488e-321
0
0.0405905
0.0795192
0.115192
0.14615
0.171123
0.189091
0.199318
0.201384
0.195206
0.181036
0.159455
0.131345
0.0978579
0.0603646
0.0203999
-0.0203999
-0.0603646
-0.0978579
-0.131345
-0.159455
-0.181036
-0.195206
-0.201384
-0.199318
-0.189091
-0.171123
-0.14615
-0.115192
-0.0795192
-0.0405905
0
0
1.3488e-321
0
0.0795192
0.155783
0.225669
0.286316
0.335241
0.370441
0.390476
0.394524
0.382421
0.354661
0.312381
0.257313
0.191709
0.118258
0.0399647
-0.0399647
-0.118258
-0.191709
-0.257313
-0.312381
-0.354661
-0.382421
-0.394524
-0.390476
-0.370441
-0.335241
-0.286316
-0.225669
-0.155783
-0.0795192
0
0
1.3488e-321
0
0.115192
0.225669
0.326906
0.41476
0.485634
0.536626
0.565648
0.571512
0.553979
0.513766
0.452519
0.372746
0.277712
0.17131
0.0578932
-0.0578932
-0.17131
-0.277712
-0.372746
-0.452519
-0.513766
-0.553979
-0.571512
-0.565648
-0.536626
-0.485634
-0.41476
-0.326906
-0.225669
-0.115192
0
0
1.3488e-321
0
0.14615
0.286316
0.41476
0.526224
0.616145
0.68084
0.717662
0.725102
0.702857
0.651837
0.57413
0.472919
0.352346
0.217348
0.0734517
-0.0734517
-0.217348
-0.352346
-0.472919
-0.57413
-0.651837
-0.702857
-0.725102
-0.717662
-0.68084
-0.616145
-0.526224
-0.41476
-0.286316
-0.14615
0
0
1.3488e-321
0
0.171123
0.335241
0.485634
0.616145
0.721431
0.797181
0.840295
0.849007
0.82296
0.763222
0.672237
0.55373
0.412554
0.254488
0.086003
-0.086003
-0.254488
-0.412554
-0.55373
-0.672237
-0.763222
-0.82296
-0.849007
-0.840295
-0.797181
-0.721431
-0.616145
-0.485634
-0.335241
-0.171123
0
0
1.3488e-321
0
0.189091
0.370441
0.536626
0.68084
0.797181
0.880885
0.928526
0.938153
0.909371
0.84336
0.742822
0.611872
0.455872
0.281209
0.0950333
-0.0950333
-0.281209
-0.455872
-0.611872
-0.742822
-0.84336
-0.909371
-0.938153
-0.928526
-0.880885
-0.797181
-0.68084
-0.536626
-0.370441
-0.189091
0
0
1.3488e-321
0
0.199318
0.390476
0.565648
0.717662
0.840295
0.928526
0.978743
0.98889
0.958553
0.888971
0.782996
0.644964
0.480527
0.296418
0.100173
-0.100173
-0.296418
-0.480527
-0.644964
-0.782996
-0.888971
-0.958553
-0.98889
-0.978743
-0.928526
-0.840295
-0.717662
-0.565648
-0.390476
-0.199318
0
0
1.3488e-321
0
0.201384
0.394524
0.571512
0.725102
0.849007
0.938153
0.98889
0.999143
0.968491
0.898188
0.791113
0.651651
0.485509
0.299491
0.101212
-0.101212
-0.299491
-0.485509
-0.651651
-0.791113
-0.898188
-0.968491
-0.999143
-0.98889
-0.938153
-0.849007
-0.725102
-0.571512
-0.394524
-0.201384
0
0
1.3488e-321
0
0.195206
0.382421
0.553979
0.702857
0.82296
0.909371
0.958553
0.968491
0.938778
0.870633
0.766843
0.631659
0.470614
0.290303
0.0981065
-0.0981065
-0.290303
-0.470614
-0.631659
-0.766843
-0.870633
-0.938778
-0.968491
-0.958553
-0.909371
-0.82296
-0.702857
-0.553979
-0.382421
-0.195206
0
0
1.3488e-321
0
0.181036
0.354661
0.513766
0.651837
0.763222
0.84336
0.888971
0.898188
0.870633
0.807434
0.711178
0.585807
0.436453
0.26923
0.0909849
-0.0909849
-0.26923
-0.436453
-0.585807
-0.711178
-0.807434
-0.870633
-0.898188
-0.888971
-0.84336
-0.763222
-0.651837
-0.513766
-0.354661
-0.181036
0
0
1.3488e-321
0
0.159455
0.312381
0.452519
0.57413
0.672237
0.742822
0.782996
0.791113
0.766843
0.711178
0.626397
0.515972
0.384422
0.237135
0.0801385
-0.0801385
-0.237135
-0.384422
-0.515972
-0.626397
-0.711178
-0.766843
-0.791113
-0.782996
-0.742822
-0.672237
-0.57413
-0.452519
-0.312381
-0.159455
0
0
1.3488e-321
0
0.131345
0.257313
0.372746
0.472919
0.55373
0.611872
0.644964
0.651651
0.631659
0.585807
0.515972
0.425013
0.316654
0.195331
0.0660111
-0.0660111
-0.195331
-0.316654
-0.425013
-0.515972
-0.585807
-0.631659
-0.651651
-0.644964
-0.611872
-0.55373
-0.472919
-0.372746
-0.257313
-0.131345
0
0
1.3488e-321
0
0.0978579
0.191709
0.277712
0.352346
0.412554
0.455872
0.480527
0.485509
0.470614
0.436453
0.384422
0.316654
0.235921
0.14553
0.0491813
-0.0491813
-0.14553
-0.235921
-0.316654
-0.384422
-0.436453
-0.470614
-0.485509
-0.480527
-0.455872
-0.412554
-0.352346
-0.277712
-0.191709
-0.0978579
0
0
1.3488e-321
0
0.0603646
0.118258
0.17131
0.217348
0.254488
0.281209
0.296418
0.299491
0.290303
0.26923
0.237135
0.195331
0.14553
0.0897718
0.0303379
-0.0303379
-0.0897718
-0.14553
-0.195331
-0.237135
-0.26923
-0.290303
-0.299491
-0.296418
-0.281209
-0.254488
-0.217348
-0.17131
-0.118258
-0.0603646
0
0
1.3488e-321
0
0.0203999
0.0399647
0.0578932
0.0734517
0.086003
0.0950333
0.100173
0.101212
0.0981065
0.0909849
0.0801385
0.0660111
0.0491813
0.0303379
0.0102526
-0.0102526
-0.0303379
-0.0491813
-0.0660111
-0.0801385
-0.0909849
-0.0981065
-0.101212
-0.100173
-0.0950333
-0.086003
-0.0734517
-0.0578932
-0.0399647
-0.0203999
0
0
1.3488e-321
0
-0.0203999
-0.0399647
-0.0578932
-0.0734517
-0.086003
-0.0950333
-0.100173
-0.101212
-0.0981065
-0.0909849
-0.0801385
-0.0660111
-0.0491813
-0.0303379
-0.0102526
0.0102526
0.0303379
0.0491813
0.0660111
0.0801385
0.0909849
0.0981065
0.101212
0.100173
0.0950333
0.086003
0.0734517
0.0578932
0.0399647
0.0203999
0
0
1.3488e-321
0
-0.0603646
-0.118258
-0.17131
-0.217348
-0.254488
-0.281209
-0.296418
-0.299491
-0.290303
-0.26923
-0.237135
-0.195331
-0.14553
-0.0897718
-0.0303379
0.0303379
0.0897718
0.14553
0.195331
0.237135
0.26923
0.290303
0.299491
0.296418
0.281209
0.254488
0.217348
0.17131
0.118258
0.0603646
0
0
1.3488e-321
0
-0.0978579
-0.191709
-0.277712
-0.352346
-0.412554
-0.455872
-0.480527
-0.485509
-0.470614
-0.436453
-0.384422
-0.316654
-0.235921
-0.14553
-0.0491813
0.0491813
0.14553
0.235921
0.316654
0.384422
0.436453
0.470614
0.485509
0.480527
0.455872
0.412554
0.352346
0.277712
0.191709
0.0978579
0
0
1.3488e-321
0
-0.131345
-0.257313
-0.372746
-0.472919
-0.55373
-0.611872
-0.644964
-0.651651
-0.631659
-0.585807
-0.515972
-0.425013
-0.316654
-0.195331
-0.0660111
0.0660111
0.195331
0.316654
0.425013
0.515972
0.585807
0.631659
0.651651
0.644964
0.611872
0.55373
0.472919
0.372746
0.257313
0.131345
0
0
1.3488e-321
0
-0.159455
-0.312381
-0.452519
-0.57413
-0.672237
-0.742822
-0.782996
-0.791113
-0.766843
-0.711178
-0.626397
-0.515972
-0.384422
-0.237135
-0.0801385
0.0801385
0.237135
0.384422
0.515972
0.626397
0.711178
0.766843
0.791113
0.782996
0.742822
0.672237
0.57413
0.452519
0.312381
0.159455
0
0
1.3488e-321
0
-0.181036
-0.354661
-0.513766
-0.651837
-0.763222
-0.84336
-0.888971
-0.898188
-0.870633
-0.807434
-0.711178
-0.585807
-0.436453
-0.26923
-0.0909849
0.0909849
0.26923
0.436453
0.585807
0.711178
0.807434
0.870633
0.898188
0.888971
0.84336
0.763222
0.651837
0.513766
0.354661
0.181036
0
0
1.3488e-321
0
-0.195206
-0.382421
-0.553979
-0.702857
-0.82296
-0.909371
-0.958553
-0.968491
-0.938778
-0.870633
-0.766843
-0.631659
-0.470614
-0.290303
-0.0981065
0.0981065
0.290303
0.470614
0.631659
0.766843
0.870633
0.938778
0.968491
0.958553
0.909371
0.82296
0.702857
0.553979
0.382421
0.195206
0
0
1.3488e-321
0
-0.201384
-0.394524
-0.571512
-0.725102
-0.849007
-0.938153
-0.98889
-0.999143
-0.968491
-0.898188
-0.791113
-0.651651
-0.485509
-0.299491
-0.101212
0.101212
0.299491
0.485509
0.651651
0.791113
0.898188
0.968491
0.999143
0.98889
0.938153
0.849007
0.725102
0.571512
0.394524
0.201384
0
0
1.3488e-321
0
-0.199318
-0.390476
-0.565648
-0.717662
-0.840295
-0.928526
-0.978743
-0.98889
-0.958553
-0.888971
-0.782996
-0.644964
-0.480527
-0.296418
-0.100173
0.100173
0.296418
0.480527
0.644964
0.782996
0.888971
0.958553
0.98889
0.978743
0.928526
0.840295
0.717662
0.565648
0.390476
0.199318
0
0
1.3488e-321
0
-0.189091
-0.370441
-0.536626
-0.68084
-0.797181
-0.880885
-0.928526
-0.938153
-0.909371
-0.84336
-0.742822
-0.611872
-0.455872
-0.281209
-0.0950333
0.0950333
0.281209
0.455872
0.611872
0.742822
0.84336
0.909371
0.938153
0.928526
0.880885
0.797181
0.68084
0.536626
0.370441
0.189091
0
0
1.3488e-321
0
-0.171123
-0.335241
-0.485634
-0.616145
-0.721431
-0.797181
-0.840295
-0.849007
-0.82296
-0.763222
-0.672237
-0.55373
-0.412554
-0.254488
-0.086003
0.086003
0.254488
0.412554
0.55373
0.672237
0.763222
0.82296
0.849007
0.840295
0.797181
0.721431
0.616145
0.485634
0.335241
0.171123
0
0
1.3488e-321
0
-0.14615
-0.286316
-0.41476
-0.526224
-0.616145
-0.68084
-0.717662
-0.725102
-0.702857
-0.651837
-0.57413
-0.472919
-0.352346
-0.217348
-0.0734517
0.0734517
0.217348
0.352346
0.472919
0.57413
0.651837
0.702857
0.725102
0.717662
0.68084
0.616145
0.526224
0.41476
0.286316
0.14615
0
0
1.3488e-321
0
-0.115192
-0.225669
-0.326906
-0.41476
-0.485634
-0.536626
-0.565648
